mbuild_polymers/peg_modified/peg_modified-N=15.lammps - created by mBuild; units = real

118 atoms
117 bonds
0 angles
0 dihedrals
0 impropers

3 atom types
1 bond types

0.000000 34.166610 xlo xhi
0.000000 16.474960 ylo yhi
0.000000 18.586700 zlo zhi

Masses

1	12.011000	# C
2	1.008000	# H
3	15.999000	# O

Atoms # full

1	1	1	0.000000	0.918994	-0.059459	0.121704
2	1	1	0.000000	-0.570637	-0.342368	-0.029387
3	1	3	0.000000	-1.319505	0.792156	0.311555
4	1	2	0.000000	1.224565	0.755539	-0.568123
5	1	2	0.000000	1.500154	-0.973496	-0.122746
6	1	2	0.000000	-0.852821	-1.174087	0.650100
7	1	2	0.000000	-0.793614	-0.658977	-1.073556
8	1	1	0.000000	-1.247607	1.455433	-0.501549
9	1	1	0.000000	-2.625912	2.002986	-0.851300
10	1	3	0.000000	-3.183871	2.661022	0.253172
11	1	2	0.000000	-0.562719	2.287948	-0.234520
12	1	2	0.000000	-0.828505	0.911624	-1.374241
13	1	2	0.000000	-3.289467	1.159833	-1.137438
14	1	2	0.000000	-2.551045	2.693926	-1.721499
15	1	1	0.000000	-2.705064	3.595103	0.320115
16	1	1	0.000000	-3.737004	4.696068	0.531873
17	1	3	0.000000	-4.475892	4.454139	1.697937
18	1	2	0.000000	-1.986532	3.577536	1.166790
19	1	2	0.000000	-2.146340	3.781931	-0.621102
20	1	2	0.000000	-4.431867	4.713609	-0.334120
21	1	2	0.000000	-3.230540	5.686311	0.588105
22	1	1	0.000000	-3.858246	4.721469	2.506201
23	1	1	0.000000	-4.640354	5.569018	3.502109
24	1	3	0.000000	-5.758808	4.865177	3.968863
25	1	2	0.000000	-3.483949	3.800001	3.000422
26	1	2	0.000000	-2.991879	5.299908	2.121776
27	1	2	0.000000	-4.986492	6.495443	2.997123
28	1	2	0.000000	-3.981705	5.863797	4.350365
29	1	1	0.000000	-5.403302	4.166479	4.670062
30	1	1	0.000000	-6.271274	4.196377	5.922098
31	1	3	0.000000	-7.604573	3.910864	5.598086
32	1	2	0.000000	-5.421585	3.152589	4.217129
33	1	2	0.000000	-4.355776	4.422616	4.934731
34	1	2	0.000000	-6.222485	5.209808	6.373390
35	1	2	0.000000	-5.885539	3.466689	6.669771
36	1	1	0.000000	-7.661241	2.871634	5.446324
37	1	1	0.000000	-8.868576	2.302379	6.181277
38	1	3	0.000000	-10.046331	2.914970	5.732040
39	1	2	0.000000	-7.744636	2.665276	4.358245
40	1	2	0.000000	-6.732463	2.400094	5.831017
41	1	2	0.000000	-8.756722	2.497646	7.268681
42	1	2	0.000000	-8.919595	1.199937	6.032048
43	1	1	0.000000	-10.270636	2.486693	4.797958
44	1	1	0.000000	-11.745963	2.110349	4.737616
45	1	3	0.000000	-12.546684	3.241070	4.948571
46	1	2	0.000000	-10.029341	3.214776	3.994759
47	1	2	0.000000	-9.646836	1.578701	4.658704
48	1	2	0.000000	-11.963274	1.365507	5.532017
49	1	2	0.000000	-11.979472	1.643701	3.753765
50	1	1	0.000000	-12.533611	3.790370	4.051719
51	1	1	0.000000	-13.949011	4.214327	3.679203
52	1	3	0.000000	-14.512143	4.987203	4.703769
53	1	2	0.000000	-11.888650	4.685267	4.180715
54	1	2	0.000000	-12.109065	3.154965	3.246121
55	1	2	0.000000	-14.572612	3.307391	3.531978
56	1	2	0.000000	-13.936052	4.783380	2.721988
57	1	1	0.000000	-14.083916	5.944874	4.628058
58	1	1	0.000000	-15.168839	7.010400	4.725330
59	1	3	0.000000	-15.861267	6.892016	5.938061
60	1	2	0.000000	-13.342739	6.079268	5.444177
61	1	2	0.000000	-13.562156	6.030148	3.651604
62	1	2	0.000000	-15.886915	6.874557	3.889268
63	1	2	0.000000	-14.716394	8.023589	4.630511
64	1	1	0.000000	-15.237537	7.297922	6.681328
65	1	1	0.000000	-16.037796	8.232114	7.580625
66	1	3	0.000000	-17.102633	7.542256	8.175947
67	1	2	0.000000	-14.799702	6.472522	7.281720
68	1	2	0.000000	-14.415157	7.862066	6.193067
69	1	2	0.000000	-16.448091	9.062388	6.967936
70	1	2	0.000000	-15.373566	8.672707	8.358396
71	1	1	0.000000	-16.690203	6.964462	8.952025
72	1	1	0.000000	-17.524118	7.120142	10.217811
73	1	3	0.000000	-18.847970	6.725663	9.981190
74	1	2	0.000000	-16.664879	5.898781	8.640354
75	1	2	0.000000	-15.651578	7.307247	9.143662
76	1	2	0.000000	-17.519014	8.186699	10.526870
77	1	2	0.000000	-17.078543	6.519548	11.043039
78	1	1	0.000000	-18.851368	5.673923	9.972504
79	1	1	0.000000	-20.005041	5.149179	10.818404
80	1	3	0.000000	-21.226562	5.634168	10.331721
81	1	2	0.000000	-18.952831	5.317495	8.925547
82	1	2	0.000000	-17.887884	5.307026	10.384880
83	1	2	0.000000	-19.874578	5.495992	11.865203
84	1	2	0.000000	-19.999245	4.035531	10.820527
85	1	1	0.000000	-21.452245	5.071944	9.471946
86	1	1	0.000000	-22.905675	4.616229	9.513540
87	1	3	0.000000	-23.761479	5.722866	9.598059
88	1	2	0.000000	-21.273398	5.695338	8.570364
89	1	2	0.000000	-20.783356	4.186417	9.434591
90	1	2	0.000000	-23.059900	3.976279	10.407836
91	1	2	0.000000	-23.139784	4.008803	8.609949
92	1	1	0.000000	-23.803113	6.145007	8.635611
93	1	1	0.000000	-25.249343	6.441693	8.258437
94	1	3	0.000000	-25.826143	7.317057	9.188614
95	1	2	0.000000	-23.205198	7.080815	8.620900
96	1	2	0.000000	-23.366257	5.428382	7.908580
97	1	2	0.000000	-25.825772	5.492583	8.255978
98	1	2	0.000000	-25.293823	6.875162	7.233558
99	1	1	0.000000	-25.453583	8.276086	8.970198
100	1	1	0.000000	-26.592549	9.288277	8.960678
101	1	3	0.000000	-27.244147	9.300844	10.201424
102	1	2	0.000000	-24.699014	8.557828	9.734856
103	1	2	0.000000	-24.964076	8.254209	7.973769
104	1	2	0.000000	-27.324524	9.003567	8.175669
105	1	2	0.000000	-26.199397	10.300871	8.715045
106	1	1	0.000000	1.144938	0.242974	1.168544
107	1	3	0.000000	-0.036112	0.525882	1.884459
108	1	1	0.000000	-0.702946	1.611284	1.275327
109	1	1	0.000000	-1.985343	1.914963	2.045751
110	1	3	0.000000	-2.838673	0.802457	2.041297
111	1	2	0.000000	1.842088	1.110319	1.181199
112	1	2	0.000000	1.660243	-0.608097	1.659180
113	1	2	0.000000	-0.065252	2.524681	1.293451
114	1	2	0.000000	-0.971617	1.373195	0.220327
115	1	2	0.000000	-2.496059	2.797623	1.597818
116	1	2	0.000000	-1.730826	2.166973	3.097208
117	1	2	0.000000	-3.255411	0.767708	1.140775
118	1	2	0.000000	-26.598850	9.856779	10.887984

Bonds

1	1	2	1
2	1	4	1
3	1	5	1
4	1	106	1
5	1	3	2
6	1	6	2
7	1	7	2
8	1	8	3
9	1	9	8
10	1	11	8
11	1	12	8
12	1	10	9
13	1	13	9
14	1	14	9
15	1	15	10
16	1	16	15
17	1	18	15
18	1	19	15
19	1	17	16
20	1	20	16
21	1	21	16
22	1	22	17
23	1	23	22
24	1	25	22
25	1	26	22
26	1	24	23
27	1	27	23
28	1	28	23
29	1	29	24
30	1	30	29
31	1	32	29
32	1	33	29
33	1	31	30
34	1	34	30
35	1	35	30
36	1	36	31
37	1	37	36
38	1	39	36
39	1	40	36
40	1	38	37
41	1	41	37
42	1	42	37
43	1	43	38
44	1	44	43
45	1	46	43
46	1	47	43
47	1	45	44
48	1	48	44
49	1	49	44
50	1	50	45
51	1	51	50
52	1	53	50
53	1	54	50
54	1	52	51
55	1	55	51
56	1	56	51
57	1	57	52
58	1	58	57
59	1	60	57
60	1	61	57
61	1	59	58
62	1	62	58
63	1	63	58
64	1	64	59
65	1	65	64
66	1	67	64
67	1	68	64
68	1	66	65
69	1	69	65
70	1	70	65
71	1	71	66
72	1	72	71
73	1	74	71
74	1	75	71
75	1	73	72
76	1	76	72
77	1	77	72
78	1	78	73
79	1	79	78
80	1	81	78
81	1	82	78
82	1	80	79
83	1	83	79
84	1	84	79
85	1	85	80
86	1	86	85
87	1	88	85
88	1	89	85
89	1	87	86
90	1	90	86
91	1	91	86
92	1	92	87
93	1	93	92
94	1	95	92
95	1	96	92
96	1	94	93
97	1	97	93
98	1	98	93
99	1	99	94
100	1	100	99
101	1	102	99
102	1	103	99
103	1	101	100
104	1	104	100
105	1	105	100
106	1	118	101
107	1	107	106
108	1	111	106
109	1	112	106
110	1	108	107
111	1	109	108
112	1	113	108
113	1	114	108
114	1	110	109
115	1	115	109
116	1	116	109
117	1	117	110
