mbuild_polymers/polymethylketone/polymethylketone-N=3.lammps - created by mBuild; units = real

234 atoms
257 bonds
0 angles
0 dihedrals
0 impropers

3 atom types
1 bond types

0.000000 33.284730 xlo xhi
0.000000 24.987510 ylo yhi
0.000000 20.601640 zlo zhi

Masses

1	12.011000	# C
2	1.008000	# H
3	15.999000	# O

Atoms # full

1	1	1	0.000000	7.544635	-0.476397	-3.554983
2	1	1	0.000000	6.368033	0.206424	-3.246877
3	1	1	0.000000	6.105878	0.592484	-1.929308
4	1	1	0.000000	7.017449	0.286061	-0.901632
5	1	1	0.000000	6.758035	0.697638	0.500175
6	1	1	0.000000	5.389016	0.761719	1.069857
7	1	1	0.000000	5.090291	1.688612	2.083472
8	1	1	0.000000	3.806200	1.747598	2.635971
9	1	1	0.000000	2.800676	0.887891	2.184833
10	1	1	0.000000	3.102930	-0.063622	1.195929
11	1	1	0.000000	4.386645	-0.128814	0.647167
12	1	3	0.000000	1.528979	0.969286	2.769636
13	1	1	0.000000	0.321625	0.669844	2.121022
14	1	1	0.000000	0.131391	0.927803	0.760445
15	1	1	0.000000	-1.088386	0.640931	0.146785
16	1	1	0.000000	-2.171854	0.087407	0.877214
17	1	1	0.000000	-3.526319	-0.239560	0.191256
18	1	1	0.000000	-3.549667	0.147486	-1.327190
19	1	1	0.000000	-4.907596	-0.198496	-1.974054
20	1	1	0.000000	-5.161910	-1.713160	-1.849791
21	1	1	0.000000	-5.176804	-2.107748	-0.359155
22	1	1	0.000000	-6.294034	-1.330017	0.370077
23	1	1	0.000000	-6.044949	0.187576	0.234673
24	1	1	0.000000	-6.029676	0.576147	-1.256854
25	1	1	0.000000	-4.687628	0.547278	0.877100
26	1	1	0.000000	-3.811990	-1.770099	0.279208
27	1	1	0.000000	-1.960289	-0.165150	2.264531
28	1	1	0.000000	-0.730336	0.141928	2.865402
29	1	3	0.000000	-2.959367	-0.725042	3.058548
30	1	3	0.000000	7.737692	1.004322	1.234656
31	1	1	0.000000	8.208232	-0.385837	-1.227287
32	1	1	0.000000	8.465171	-0.770002	-2.546191
33	1	2	0.000000	5.658054	0.440095	-4.029652
34	1	2	0.000000	5.196157	1.137904	-1.716288
35	1	2	0.000000	5.847081	2.376462	2.440535
36	1	2	0.000000	3.589279	2.470541	3.411952
37	1	2	0.000000	2.355167	-0.772164	0.867266
38	1	2	0.000000	4.599899	-0.887470	-0.095735
39	1	2	0.000000	0.923185	1.371306	0.172434
40	1	2	0.000000	-1.156092	0.869309	-0.906924
41	1	2	0.000000	-3.368805	1.237678	-1.449540
42	1	2	0.000000	-2.755286	-0.398112	-1.879837
43	1	2	0.000000	-4.891066	0.086869	-3.049354
44	1	2	0.000000	-6.132664	-1.976239	-2.323827
45	1	2	0.000000	-4.368364	-2.278578	-2.386153
46	1	2	0.000000	-5.367510	-3.199193	-0.269425
47	1	2	0.000000	-7.283179	-1.590550	-0.066327
48	1	2	0.000000	-6.319022	-1.617038	1.444729
49	1	2	0.000000	-6.857321	0.743426	0.751533
50	1	2	0.000000	-7.011333	0.340769	-1.722546
51	1	2	0.000000	-5.866255	1.670896	-1.363958
52	1	2	0.000000	-4.509790	1.641610	0.784552
53	1	2	0.000000	-4.759382	0.329031	1.959938
54	1	2	0.000000	-3.824569	-2.128484	1.326398
55	1	2	0.000000	-3.007640	-2.334807	-0.241313
56	1	2	0.000000	-0.584671	-0.046605	3.921104
57	1	2	0.000000	-2.819473	-0.912930	4.044279
58	1	2	0.000000	8.930157	-0.627996	-0.457922
59	1	1	0.000000	9.376795	-1.299252	-2.785996
60	1	1	0.000000	10.088220	-0.975026	-3.941123
61	1	1	0.000000	11.268407	-1.656325	-4.252165
62	1	1	0.000000	11.755889	-2.664278	-3.399308
63	1	1	0.000000	13.001847	-3.403197	-3.720776
64	1	1	0.000000	14.144718	-2.767733	-4.422835
65	1	1	0.000000	14.983620	-3.539445	-5.245322
66	1	1	0.000000	16.071282	-2.952094	-5.900787
67	1	1	0.000000	16.336884	-1.588116	-5.750054
68	1	1	0.000000	15.521879	-0.819132	-4.902059
69	1	1	0.000000	14.438735	-1.405017	-4.241111
70	1	3	0.000000	17.441891	-1.037119	-6.414279
71	1	1	0.000000	17.534161	0.288082	-6.865278
72	1	1	0.000000	16.419303	0.985250	-7.339568
73	1	1	0.000000	16.545124	2.295036	-7.803637
74	1	1	0.000000	17.799699	2.958137	-7.816078
75	1	1	0.000000	17.937100	4.419079	-8.324796
76	1	1	0.000000	16.582220	5.015272	-8.839463
77	1	1	0.000000	16.758163	6.468239	-9.329397
78	1	1	0.000000	17.268397	7.341479	-8.166883
79	1	1	0.000000	18.619645	6.789989	-7.668981
80	1	1	0.000000	19.643595	6.810558	-8.824815
81	1	1	0.000000	19.125875	5.945187	-9.993817
82	1	1	0.000000	17.774795	6.499880	-10.486536
83	1	1	0.000000	18.943910	4.488033	-9.516313
84	1	1	0.000000	18.434629	5.340709	-7.169394
85	1	1	0.000000	18.925935	2.229713	-7.332152
86	1	1	0.000000	18.780502	0.909203	-6.881339
87	1	3	0.000000	20.194671	2.804560	-7.287881
88	1	3	0.000000	13.092719	-4.616469	-3.384681
89	1	1	0.000000	11.020552	-2.994955	-2.248050
90	1	1	0.000000	9.841425	-2.310275	-1.941484
91	1	2	0.000000	9.724500	-0.196466	-4.599121
92	1	2	0.000000	11.793745	-1.401554	-5.162969
93	1	2	0.000000	14.791116	-4.595386	-5.391251
94	1	2	0.000000	16.705290	-3.557808	-6.535603
95	1	2	0.000000	15.738012	0.226385	-4.730651
96	1	2	0.000000	13.841326	-0.795705	-3.574191
97	1	2	0.000000	15.449028	0.508756	-7.369700
98	1	2	0.000000	15.637520	2.764931	-8.153633
99	1	2	0.000000	16.187980	4.405048	-9.681128
100	1	2	0.000000	15.823685	5.014342	-8.027823
101	1	2	0.000000	15.780453	6.861659	-9.686162
102	1	2	0.000000	17.387188	8.393974	-8.505153
103	1	2	0.000000	16.527819	7.342763	-7.337039
104	1	2	0.000000	18.991112	7.424349	-6.835153
105	1	2	0.000000	19.802990	7.855470	-9.170481
106	1	2	0.000000	20.625191	6.424216	-8.471133
107	1	2	0.000000	19.860792	5.971804	-10.827634
108	1	2	0.000000	17.900908	7.541876	-10.852949
109	1	2	0.000000	17.401234	5.891807	-11.339386
110	1	2	0.000000	18.575793	3.862666	-10.359616
111	1	2	0.000000	19.942625	4.095794	-9.244217
112	1	2	0.000000	19.399939	4.995421	-6.752070
113	1	2	0.000000	17.702148	5.326007	-6.332691
114	1	2	0.000000	19.644345	0.363793	-6.524166
115	1	2	0.000000	21.001553	2.298515	-6.942337
116	1	2	0.000000	11.368570	-3.770788	-1.578196
117	1	1	0.000000	9.289329	-2.560827	-1.046451
118	1	1	0.000000	7.896812	-2.632382	-1.083065
119	1	1	0.000000	7.180850	-2.958382	0.072304
120	1	1	0.000000	7.856187	-3.229180	1.277112
121	1	1	0.000000	7.109848	-3.567025	2.514284
122	1	1	0.000000	5.835287	-4.327183	2.491678
123	1	1	0.000000	4.866712	-4.108516	3.486579
124	1	1	0.000000	3.667754	-4.829691	3.481254
125	1	1	0.000000	3.414342	-5.775478	2.483771
126	1	1	0.000000	4.393495	-6.022496	1.506578
127	1	1	0.000000	5.594650	-5.308009	1.513650
128	1	3	0.000000	2.206160	-6.486117	2.517217
129	1	1	0.000000	1.531534	-6.984602	1.392733
130	1	1	0.000000	1.543008	-6.312099	0.167372
131	1	1	0.000000	0.843694	-6.819677	-0.928097
132	1	1	0.000000	0.097459	-8.023221	-0.836263
133	1	1	0.000000	-0.673528	-8.591858	-2.058660
134	1	1	0.000000	-0.560530	-7.680275	-3.328414
135	1	1	0.000000	-1.332860	-8.281456	-4.521810
136	1	1	0.000000	-0.752371	-9.668157	-4.860069
137	1	1	0.000000	-0.886154	-10.591046	-3.631941
138	1	1	0.000000	-2.375853	-10.728811	-3.248971
139	1	1	0.000000	-2.959670	-9.337508	-2.922016
140	1	1	0.000000	-2.822142	-8.418981	-4.152166
141	1	1	0.000000	-2.194223	-8.723684	-1.729654
142	1	1	0.000000	-0.101841	-9.990283	-2.445279
143	1	1	0.000000	0.094420	-8.692942	0.422569
144	1	1	0.000000	0.793997	-8.159515	1.515353
145	1	3	0.000000	-0.594063	-9.891087	0.602953
146	1	3	0.000000	7.576315	-3.194186	3.626330
147	1	1	0.000000	9.258282	-3.135693	1.306271
148	1	1	0.000000	9.969285	-2.809847	0.148079
149	1	2	0.000000	7.369556	-2.432571	-2.006909
150	1	2	0.000000	6.100430	-2.989446	0.025613
151	1	2	0.000000	5.031556	-3.370602	4.262255
152	1	2	0.000000	2.928634	-4.646437	4.250648
153	1	2	0.000000	4.240758	-6.784704	0.754973
154	1	2	0.000000	6.342595	-5.535030	0.763998
155	1	2	0.000000	2.079524	-5.379236	0.061033
156	1	2	0.000000	0.901892	-6.241682	-1.838909
157	1	2	0.000000	-0.972742	-6.669948	-3.115062
158	1	2	0.000000	0.502360	-7.562663	-3.629361
159	1	2	0.000000	-1.232039	-7.612658	-5.405281
160	1	2	0.000000	-1.293421	-10.106052	-5.727131
161	1	2	0.000000	0.316857	-9.573493	-5.151426
162	1	2	0.000000	-0.473959	-11.593536	-3.878477
163	1	2	0.000000	-2.941648	-11.187549	-4.089309
164	1	2	0.000000	-2.482510	-11.402303	-2.369814
165	1	2	0.000000	-4.034678	-9.440162	-2.657661
166	1	2	0.000000	-3.388826	-8.842401	-5.009782
167	1	2	0.000000	-3.254393	-7.418501	-3.931144
168	1	2	0.000000	-2.617797	-7.723214	-1.490070
169	1	2	0.000000	-2.377720	-9.364627	-0.846003
170	1	2	0.000000	-0.153864	-10.705369	-1.601982
171	1	2	0.000000	0.972234	-9.896773	-2.718107
172	1	2	0.000000	0.777262	-8.672728	2.468035
173	1	2	0.000000	-0.600157	-10.378238	1.491314
174	1	2	0.000000	9.802815	-3.331924	2.220992
175	1	3	0.000000	6.431157	1.099014	-5.447838
176	1	1	0.000000	7.219995	-0.044172	-5.645014
177	1	1	0.000000	7.745037	-0.776061	-4.575477
178	1	1	0.000000	8.514567	-1.916655	-4.807119
179	1	1	0.000000	8.779821	-2.377587	-6.122296
180	1	1	0.000000	9.642712	-3.643727	-6.377749
181	1	1	0.000000	10.898799	-3.276733	-7.228522
182	1	1	0.000000	11.741553	-4.535672	-7.529577
183	1	1	0.000000	10.879237	-5.563219	-8.294799
184	1	1	0.000000	9.667149	-5.971744	-7.429401
185	1	1	0.000000	10.162370	-6.589590	-6.107172
186	1	1	0.000000	11.015670	-5.554372	-5.348435
187	1	1	0.000000	12.232047	-5.156518	-6.207108
188	1	1	0.000000	10.162272	-4.302074	-5.053842
189	1	1	0.000000	8.804845	-4.726090	-7.127624
190	1	1	0.000000	8.216063	-1.632148	-7.198209
191	1	3	0.000000	8.412290	-2.014987	-8.524339
192	1	1	0.000000	7.444610	-0.487948	-6.945651
193	1	1	0.000000	6.560798	2.002850	-4.382932
194	1	1	0.000000	5.425495	2.691003	-3.943589
195	1	1	0.000000	5.514560	3.608942	-2.893338
196	1	1	0.000000	6.748220	3.854755	-2.264625
197	1	1	0.000000	7.894438	3.190280	-2.732517
198	1	1	0.000000	7.802812	2.272176	-3.782516
199	1	1	0.000000	6.860264	4.839157	-1.160832
200	1	1	0.000000	5.766735	5.065357	-0.184490
201	1	1	0.000000	4.924999	4.011474	0.218809
202	1	1	0.000000	3.909027	4.235783	1.153055
203	1	1	0.000000	3.729337	5.507800	1.701412
204	1	1	0.000000	4.569518	6.556933	1.321228
205	1	1	0.000000	5.587203	6.337802	0.387454
206	1	3	0.000000	7.923979	5.508061	-1.048252
207	1	2	0.000000	8.886704	-2.423707	-3.931173
208	1	2	0.000000	11.520795	-2.532726	-6.682727
209	1	2	0.000000	10.624698	-2.813187	-8.195925
210	1	2	0.000000	12.619102	-4.253599	-8.151341
211	1	2	0.000000	11.488515	-6.460553	-8.541066
212	1	2	0.000000	10.530131	-5.126078	-9.256148
213	1	2	0.000000	9.056124	-6.720444	-7.979224
214	1	2	0.000000	10.764931	-7.501122	-6.314941
215	1	2	0.000000	9.295444	-6.900192	-5.483370
216	1	2	0.000000	11.368299	-5.996810	-4.391275
217	1	2	0.000000	12.859725	-6.050689	-6.415959
218	1	2	0.000000	12.865999	-4.427583	-5.655867
219	1	2	0.000000	10.785380	-3.579579	-4.480761
220	1	2	0.000000	9.306357	-4.606725	-4.411040
221	1	2	0.000000	8.404797	-4.349716	-8.088946
222	1	2	0.000000	7.927384	-5.020034	-6.509679
223	1	2	0.000000	8.017559	-1.493350	-9.298148
224	1	2	0.000000	7.021140	0.068985	-7.772376
225	1	2	0.000000	4.468603	2.511395	-4.417069
226	1	2	0.000000	4.621756	4.137583	-2.584173
227	1	2	0.000000	8.861332	3.377595	-2.281724
228	1	2	0.000000	8.703170	1.788241	-4.137510
229	1	2	0.000000	5.061523	3.012434	-0.175472
230	1	2	0.000000	3.264609	3.420913	1.456656
231	1	2	0.000000	2.943036	5.679102	2.425248
232	1	2	0.000000	4.432864	7.541010	1.750718
233	1	2	0.000000	6.226958	7.164439	0.103518
234	1	2	0.000000	11.061480	-2.753471	0.175762

Bonds

1	1	2	1
2	1	32	1
3	1	177	1
4	1	3	2
5	1	33	2
6	1	4	3
7	1	34	3
8	1	5	4
9	1	31	4
10	1	6	5
11	1	30	5
12	1	7	6
13	1	11	6
14	1	8	7
15	1	35	7
16	1	9	8
17	1	36	8
18	1	10	9
19	1	12	9
20	1	11	10
21	1	37	10
22	1	38	11
23	1	13	12
24	1	14	13
25	1	28	13
26	1	15	14
27	1	39	14
28	1	16	15
29	1	40	15
30	1	17	16
31	1	27	16
32	1	18	17
33	1	25	17
34	1	26	17
35	1	19	18
36	1	41	18
37	1	42	18
38	1	20	19
39	1	24	19
40	1	43	19
41	1	21	20
42	1	44	20
43	1	45	20
44	1	22	21
45	1	26	21
46	1	46	21
47	1	23	22
48	1	47	22
49	1	48	22
50	1	24	23
51	1	25	23
52	1	49	23
53	1	50	24
54	1	51	24
55	1	52	25
56	1	53	25
57	1	54	26
58	1	55	26
59	1	28	27
60	1	29	27
61	1	56	28
62	1	57	29
63	1	32	31
64	1	58	31
65	1	59	32
66	1	60	59
67	1	90	59
68	1	61	60
69	1	91	60
70	1	62	61
71	1	92	61
72	1	63	62
73	1	89	62
74	1	64	63
75	1	88	63
76	1	65	64
77	1	69	64
78	1	66	65
79	1	93	65
80	1	67	66
81	1	94	66
82	1	68	67
83	1	70	67
84	1	69	68
85	1	95	68
86	1	96	69
87	1	71	70
88	1	72	71
89	1	86	71
90	1	73	72
91	1	97	72
92	1	74	73
93	1	98	73
94	1	75	74
95	1	85	74
96	1	76	75
97	1	83	75
98	1	84	75
99	1	77	76
100	1	99	76
101	1	100	76
102	1	78	77
103	1	82	77
104	1	101	77
105	1	79	78
106	1	102	78
107	1	103	78
108	1	80	79
109	1	84	79
110	1	104	79
111	1	81	80
112	1	105	80
113	1	106	80
114	1	82	81
115	1	83	81
116	1	107	81
117	1	108	82
118	1	109	82
119	1	110	83
120	1	111	83
121	1	112	84
122	1	113	84
123	1	86	85
124	1	87	85
125	1	114	86
126	1	115	87
127	1	90	89
128	1	116	89
129	1	117	90
130	1	118	117
131	1	148	117
132	1	119	118
133	1	149	118
134	1	120	119
135	1	150	119
136	1	121	120
137	1	147	120
138	1	122	121
139	1	146	121
140	1	123	122
141	1	127	122
142	1	124	123
143	1	151	123
144	1	125	124
145	1	152	124
146	1	126	125
147	1	128	125
148	1	127	126
149	1	153	126
150	1	154	127
151	1	129	128
152	1	130	129
153	1	144	129
154	1	131	130
155	1	155	130
156	1	132	131
157	1	156	131
158	1	133	132
159	1	143	132
160	1	134	133
161	1	141	133
162	1	142	133
163	1	135	134
164	1	157	134
165	1	158	134
166	1	136	135
167	1	140	135
168	1	159	135
169	1	137	136
170	1	160	136
171	1	161	136
172	1	138	137
173	1	142	137
174	1	162	137
175	1	139	138
176	1	163	138
177	1	164	138
178	1	140	139
179	1	141	139
180	1	165	139
181	1	166	140
182	1	167	140
183	1	168	141
184	1	169	141
185	1	170	142
186	1	171	142
187	1	144	143
188	1	145	143
189	1	172	144
190	1	173	145
191	1	148	147
192	1	174	147
193	1	234	148
194	1	176	175
195	1	193	175
196	1	177	176
197	1	192	176
198	1	178	177
199	1	179	178
200	1	207	178
201	1	180	179
202	1	190	179
203	1	181	180
204	1	188	180
205	1	189	180
206	1	182	181
207	1	208	181
208	1	209	181
209	1	183	182
210	1	187	182
211	1	210	182
212	1	184	183
213	1	211	183
214	1	212	183
215	1	185	184
216	1	189	184
217	1	213	184
218	1	186	185
219	1	214	185
220	1	215	185
221	1	187	186
222	1	188	186
223	1	216	186
224	1	217	187
225	1	218	187
226	1	219	188
227	1	220	188
228	1	221	189
229	1	222	189
230	1	191	190
231	1	192	190
232	1	223	191
233	1	224	192
234	1	194	193
235	1	198	193
236	1	195	194
237	1	225	194
238	1	196	195
239	1	226	195
240	1	197	196
241	1	199	196
242	1	198	197
243	1	227	197
244	1	228	198
245	1	200	199
246	1	206	199
247	1	201	200
248	1	205	200
249	1	202	201
250	1	229	201
251	1	203	202
252	1	230	202
253	1	204	203
254	1	231	203
255	1	205	204
256	1	232	204
257	1	233	205
